; CO Topology for Antigravity

[ defaults ]
; nbfunc        comb-rule       gen-pairs       fudgeLJ fudgeQQ
1               2               yes             0.5     0.5

[ atomtypes ]
; name  at.num  mass     charge ptype  sigma      epsilon (Lennard-Jones - generic)
A1       1      12.010   0.000  A      0.33       0.00  ; Dummy LJ
A2       17     16.000   0.000  A      0.33       0.00  ; Dummy LJ

[ moleculetype ]
; Name            nrexcl
CO             3

[ atoms ]
;   nr       type  resnr residue  atom   cgnr     charge       mass
     1         A1      1    CO     C      1      0.000      12.010
     2         A2      1    CO     O      1      0.000      16.000

[ bonds ]
;  ai    aj funct            c0            c1 (k)
    1     2     1      0.1128   1120000.0

[ system ]
; Name
CO Simulation

[ molecules ]
; Compound        #mols
CO             1
