; NO Topology for Antigravity

[ defaults ]
; nbfunc        comb-rule       gen-pairs       fudgeLJ fudgeQQ
1               2               yes             0.5     0.5

[ atomtypes ]
; name  at.num  mass     charge ptype  sigma      epsilon (Lennard-Jones - generic)
A1       1      14.010   0.000  A      0.33       0.00  ; Dummy LJ
A2       17     16.000   0.000  A      0.33       0.00  ; Dummy LJ

[ moleculetype ]
; Name            nrexcl
NO             3

[ atoms ]
;   nr       type  resnr residue  atom   cgnr     charge       mass
     1         A1      1    NO     N      1      0.000      14.010
     2         A2      1    NO     O      1      0.000      16.000

[ bonds ]
;  ai    aj funct            c0            c1 (k)
    1     2     1      0.1151   933000.0

[ system ]
; Name
NO Simulation

[ molecules ]
; Compound        #mols
NO             1
